n -t * -s 0  -x 0 -y 100 -Z 100 -z 30  -v circle -c black
n -t * -s 1  -x 300 -y 100 -Z 100 -z 30  -v circle -c black
n -t * -s 2  -x 300 -y 800 -Z 100 -z 30  -v circle -c black
n -t * -s 3  -x 0 -y 800 -Z 100 -z 30  -v circle -c black
V -t * -v 1.0a5 -a 0
W -t * -x 1000 -y 1000
A -t * -n 1 -p 0 -o 0x7fffffff -c 30 -a 1
A -t * -h 1 -m 1073741823 -s 0
+ -t 1.000000000 -s 0 -d -1 -p cbr -e 512 -c 2 -a 0 -i 0 -k AGT 
- -t 1.000000000 -s 0 -d -1 -p cbr -e 512 -c 2 -a 0 -i 0 -k AGT
h -t 1.000000000 -s 0 -d -1 -p cbr -e 512 -c 2 -a 0 -i 0 -k AGT
+ -t 1.000000000 -s 3 -d -1 -p cbr -e 512 -c 2 -a 0 -i 1 -k AGT 
- -t 1.000000000 -s 3 -d -1 -p cbr -e 512 -c 2 -a 0 -i 1 -k AGT
h -t 1.000000000 -s 3 -d -1 -p cbr -e 512 -c 2 -a 0 -i 1 -k AGT
+ -t 1.000000000 -s 0 -d -1 -p AODV -e 48 -c 2 -a 0 -i 0 -k RTR 
- -t 1.000000000 -s 0 -d -1 -p AODV -e 48 -c 2 -a 0 -i 0 -k RTR
h -t 1.000000000 -s 0 -d -1 -p AODV -e 48 -c 2 -a 0 -i 0 -k RTR
+ -t 1.000000000 -s 3 -d -1 -p AODV -e 48 -c 2 -a 0 -i 0 -k RTR 
- -t 1.000000000 -s 3 -d -1 -p AODV -e 48 -c 2 -a 0 -i 0 -k RTR
h -t 1.000000000 -s 3 -d -1 -p AODV -e 48 -c 2 -a 0 -i 0 -k RTR
+ -t 1.000115000 -s 3 -d -1 -p AODV -e 106 -c 2 -a 0 -i 0 -k MAC 
- -t 1.000115000 -s 3 -d -1 -p AODV -e 106 -c 2 -a 0 -i 0 -k MAC
h -t 1.000115000 -s 3 -d -1 -p AODV -e 106 -c 2 -a 0 -i 0 -k MAC
+ -t 1.000535000 -s 0 -d -1 -p AODV -e 106 -c 2 -a 0 -i 0 -k MAC 
- -t 1.000535000 -s 0 -d -1 -p AODV -e 106 -c 2 -a 0 -i 0 -k MAC
h -t 1.000535000 -s 0 -d -1 -p AODV -e 106 -c 2 -a 0 -i 0 -k MAC
r -t 1.000964000 -s 2 -d -1 -p AODV -e 48 -c 2 -a 0 -i 0 -k MAC
r -t 1.000989000 -s 2 -d -1 -p AODV -e 48 -c 2 -a 0 -i 0 -k RTR
+ -t 1.000989000 -s 2 -d 3 -p AODV -e 44 -c 2 -a 0 -i 0 -k RTR 
- -t 1.000989000 -s 2 -d 3 -p AODV -e 44 -c 2 -a 0 -i 0 -k RTR
h -t 1.000989000 -s 2 -d 3 -p AODV -e 44 -c 2 -a 0 -i 0 -k RTR
+ -t 1.001344000 -s 2 -d -1 -p ARP -e 86 -c 2 -a 0 -i 0 -k MAC 
- -t 1.001344000 -s 2 -d -1 -p ARP -e 86 -c 2 -a 0 -i 0 -k MAC
h -t 1.001344000 -s 2 -d -1 -p ARP -e 86 -c 2 -a 0 -i 0 -k MAC
r -t 1.001384000 -s 1 -d -1 -p AODV -e 48 -c 2 -a 0 -i 0 -k MAC
r -t 1.001409000 -s 1 -d -1 -p AODV -e 48 -c 2 -a 0 -i 0 -k RTR
+ -t 1.001409000 -s 1 -d 0 -p AODV -e 44 -c 2 -a 0 -i 0 -k RTR 
- -t 1.001409000 -s 1 -d 0 -p AODV -e 44 -c 2 -a 0 -i 0 -k RTR
h -t 1.001409000 -s 1 -d 0 -p AODV -e 44 -c 2 -a 0 -i 0 -k RTR
+ -t 1.001464000 -s 1 -d -1 -p ARP -e 86 -c 2 -a 0 -i 0 -k MAC 
- -t 1.001464000 -s 1 -d -1 -p ARP -e 86 -c 2 -a 0 -i 0 -k MAC
h -t 1.001464000 -s 1 -d -1 -p ARP -e 86 -c 2 -a 0 -i 0 -k MAC
r -t 1.002033000 -s 3 -d -1 -p ARP -e 28 -c 2 -a 0 -i 0 -k MAC
r -t 1.002153000 -s 0 -d -1 -p ARP -e 28 -c 2 -a 0 -i 0 -k MAC
+ -t 1.002323000 -s 3 -d -1 -p RTS -e 44 -c 2 -a 0 -i 0 -k MAC 
- -t 1.002323000 -s 3 -d -1 -p RTS -e 44 -c 2 -a 0 -i 0 -k MAC
h -t 1.002323000 -s 3 -d -1 -p RTS -e 44 -c 2 -a 0 -i 0 -k MAC
+ -t 1.002503000 -s 0 -d -1 -p RTS -e 44 -c 2 -a 0 -i 0 -k MAC 
- -t 1.002503000 -s 0 -d -1 -p RTS -e 44 -c 2 -a 0 -i 0 -k MAC
h -t 1.002503000 -s 0 -d -1 -p RTS -e 44 -c 2 -a 0 -i 0 -k MAC
r -t 1.002676000 -s 2 -d -1 -p RTS -e 44 -c 2 -a 0 -i 0 -k MAC
+ -t 1.002686000 -s 2 -d -1 -p CTS -e 38 -c 2 -a 0 -i 0 -k MAC 
- -t 1.002686000 -s 2 -d -1 -p CTS -e 38 -c 2 -a 0 -i 0 -k MAC
h -t 1.002686000 -s 2 -d -1 -p CTS -e 38 -c 2 -a 0 -i 0 -k MAC
r -t 1.002856000 -s 1 -d -1 -p RTS -e 44 -c 2 -a 0 -i 0 -k MAC
+ -t 1.002866000 -s 1 -d -1 -p CTS -e 38 -c 2 -a 0 -i 0 -k MAC 
- -t 1.002866000 -s 1 -d -1 -p CTS -e 38 -c 2 -a 0 -i 0 -k MAC
h -t 1.002866000 -s 1 -d -1 -p CTS -e 38 -c 2 -a 0 -i 0 -k MAC
r -t 1.002991000 -s 3 -d -1 -p CTS -e 38 -c 2 -a 0 -i 0 -k MAC
+ -t 1.003001000 -s 3 -d -1 -p ARP -e 86 -c 2 -a 0 -i 0 -k MAC 
- -t 1.003001000 -s 3 -d -1 -p ARP -e 86 -c 2 -a 0 -i 0 -k MAC
h -t 1.003001000 -s 3 -d -1 -p ARP -e 86 -c 2 -a 0 -i 0 -k MAC
r -t 1.003171000 -s 0 -d -1 -p CTS -e 38 -c 2 -a 0 -i 0 -k MAC
+ -t 1.003181000 -s 0 -d -1 -p ARP -e 86 -c 2 -a 0 -i 0 -k MAC 
- -t 1.003181000 -s 0 -d -1 -p ARP -e 86 -c 2 -a 0 -i 0 -k MAC
h -t 1.003181000 -s 0 -d -1 -p ARP -e 86 -c 2 -a 0 -i 0 -k MAC
r -t 1.003690000 -s 2 -d -1 -p ARP -e 28 -c 2 -a 0 -i 0 -k MAC
+ -t 1.003700000 -s 2 -d -1 -p ACK -e 38 -c 2 -a 0 -i 0 -k MAC 
- -t 1.003700000 -s 2 -d -1 -p ACK -e 38 -c 2 -a 0 -i 0 -k MAC
h -t 1.003700000 -s 2 -d -1 -p ACK -e 38 -c 2 -a 0 -i 0 -k MAC
r -t 1.003870000 -s 1 -d -1 -p ARP -e 28 -c 2 -a 0 -i 0 -k MAC
+ -t 1.003880000 -s 1 -d -1 -p ACK -e 38 -c 2 -a 0 -i 0 -k MAC 
- -t 1.003880000 -s 1 -d -1 -p ACK -e 38 -c 2 -a 0 -i 0 -k MAC
h -t 1.003880000 -s 1 -d -1 -p ACK -e 38 -c 2 -a 0 -i 0 -k MAC
r -t 1.004005000 -s 3 -d -1 -p ACK -e 38 -c 2 -a 0 -i 0 -k MAC
r -t 1.004185000 -s 0 -d -1 -p ACK -e 38 -c 2 -a 0 -i 0 -k MAC
+ -t 1.004294000 -s 2 -d -1 -p RTS -e 44 -c 2 -a 0 -i 0 -k MAC 
- -t 1.004294000 -s 2 -d -1 -p RTS -e 44 -c 2 -a 0 -i 0 -k MAC
h -t 1.004294000 -s 2 -d -1 -p RTS -e 44 -c 2 -a 0 -i 0 -k MAC
+ -t 1.004494000 -s 1 -d -1 -p RTS -e 44 -c 2 -a 0 -i 0 -k MAC 
- -t 1.004494000 -s 1 -d -1 -p RTS -e 44 -c 2 -a 0 -i 0 -k MAC
h -t 1.004494000 -s 1 -d -1 -p RTS -e 44 -c 2 -a 0 -i 0 -k MAC
r -t 1.004647000 -s 3 -d -1 -p RTS -e 44 -c 2 -a 0 -i 0 -k MAC
+ -t 1.004657000 -s 3 -d -1 -p CTS -e 38 -c 2 -a 0 -i 0 -k MAC 
- -t 1.004657000 -s 3 -d -1 -p CTS -e 38 -c 2 -a 0 -i 0 -k MAC
h -t 1.004657000 -s 3 -d -1 -p CTS -e 38 -c 2 -a 0 -i 0 -k MAC
r -t 1.004847000 -s 0 -d -1 -p RTS -e 44 -c 2 -a 0 -i 0 -k MAC
+ -t 1.004857000 -s 0 -d -1 -p CTS -e 38 -c 2 -a 0 -i 0 -k MAC 
- -t 1.004857000 -s 0 -d -1 -p CTS -e 38 -c 2 -a 0 -i 0 -k MAC
h -t 1.004857000 -s 0 -d -1 -p CTS -e 38 -c 2 -a 0 -i 0 -k MAC
r -t 1.004962000 -s 2 -d -1 -p CTS -e 38 -c 2 -a 0 -i 0 -k MAC
+ -t 1.004972000 -s 2 -d 3 -p AODV -e 102 -c 2 -a 0 -i 0 -k MAC 
- -t 1.004972000 -s 2 -d 3 -p AODV -e 102 -c 2 -a 0 -i 0 -k MAC
h -t 1.004972000 -s 2 -d 3 -p AODV -e 102 -c 2 -a 0 -i 0 -k MAC
r -t 1.005162000 -s 1 -d -1 -p CTS -e 38 -c 2 -a 0 -i 0 -k MAC
+ -t 1.005172000 -s 1 -d 0 -p AODV -e 102 -c 2 -a 0 -i 0 -k MAC 
- -t 1.005172000 -s 1 -d 0 -p AODV -e 102 -c 2 -a 0 -i 0 -k MAC
h -t 1.005172000 -s 1 -d 0 -p AODV -e 102 -c 2 -a 0 -i 0 -k MAC
r -t 1.005789000 -s 3 -d 3 -p AODV -e 44 -c 2 -a 0 -i 0 -k MAC
+ -t 1.005799000 -s 3 -d -1 -p ACK -e 38 -c 2 -a 0 -i 0 -k MAC 
- -t 1.005799000 -s 3 -d -1 -p ACK -e 38 -c 2 -a 0 -i 0 -k MAC
h -t 1.005799000 -s 3 -d -1 -p ACK -e 38 -c 2 -a 0 -i 0 -k MAC
+ -t 1.005814000 -s 3 -d 2 -p cbr -e 532 -c 2 -a 0 -i 1 -k RTR 
- -t 1.005814000 -s 3 -d 2 -p cbr -e 532 -c 2 -a 0 -i 1 -k RTR
h -t 1.005814000 -s 3 -d 2 -p cbr -e 532 -c 2 -a 0 -i 1 -k RTR
r -t 1.005989000 -s 0 -d 0 -p AODV -e 44 -c 2 -a 0 -i 0 -k MAC
+ -t 1.005999000 -s 0 -d -1 -p ACK -e 38 -c 2 -a 0 -i 0 -k MAC 
- -t 1.005999000 -s 0 -d -1 -p ACK -e 38 -c 2 -a 0 -i 0 -k MAC
h -t 1.005999000 -s 0 -d -1 -p ACK -e 38 -c 2 -a 0 -i 0 -k MAC
+ -t 1.006014000 -s 0 -d 1 -p cbr -e 532 -c 2 -a 0 -i 0 -k RTR 
- -t 1.006014000 -s 0 -d 1 -p cbr -e 532 -c 2 -a 0 -i 0 -k RTR
h -t 1.006014000 -s 0 -d 1 -p cbr -e 532 -c 2 -a 0 -i 0 -k RTR
r -t 1.006104000 -s 2 -d -1 -p ACK -e 38 -c 2 -a 0 -i 0 -k MAC
+ -t 1.006293000 -s 3 -d -1 -p RTS -e 44 -c 2 -a 0 -i 0 -k MAC 
- -t 1.006293000 -s 3 -d -1 -p RTS -e 44 -c 2 -a 0 -i 0 -k MAC
h -t 1.006293000 -s 3 -d -1 -p RTS -e 44 -c 2 -a 0 -i 0 -k MAC
r -t 1.006304000 -s 1 -d -1 -p ACK -e 38 -c 2 -a 0 -i 0 -k MAC
+ -t 1.006393000 -s 0 -d -1 -p RTS -e 44 -c 2 -a 0 -i 0 -k MAC 
- -t 1.006393000 -s 0 -d -1 -p RTS -e 44 -c 2 -a 0 -i 0 -k MAC
h -t 1.006393000 -s 0 -d -1 -p RTS -e 44 -c 2 -a 0 -i 0 -k MAC
r -t 1.006646000 -s 2 -d -1 -p RTS -e 44 -c 2 -a 0 -i 0 -k MAC
+ -t 1.006656000 -s 2 -d -1 -p CTS -e 38 -c 2 -a 0 -i 0 -k MAC 
- -t 1.006656000 -s 2 -d -1 -p CTS -e 38 -c 2 -a 0 -i 0 -k MAC
h -t 1.006656000 -s 2 -d -1 -p CTS -e 38 -c 2 -a 0 -i 0 -k MAC
r -t 1.006746000 -s 1 -d -1 -p RTS -e 44 -c 2 -a 0 -i 0 -k MAC
+ -t 1.006756000 -s 1 -d -1 -p CTS -e 38 -c 2 -a 0 -i 0 -k MAC 
- -t 1.006756000 -s 1 -d -1 -p CTS -e 38 -c 2 -a 0 -i 0 -k MAC
h -t 1.006756000 -s 1 -d -1 -p CTS -e 38 -c 2 -a 0 -i 0 -k MAC
r -t 1.006961000 -s 3 -d -1 -p CTS -e 38 -c 2 -a 0 -i 0 -k MAC
+ -t 1.006971000 -s 3 -d 2 -p cbr -e 590 -c 2 -a 0 -i 1 -k MAC 
- -t 1.006971000 -s 3 -d 2 -p cbr -e 590 -c 2 -a 0 -i 1 -k MAC
h -t 1.006971000 -s 3 -d 2 -p cbr -e 590 -c 2 -a 0 -i 1 -k MAC
r -t 1.007061000 -s 0 -d -1 -p CTS -e 38 -c 2 -a 0 -i 0 -k MAC
+ -t 1.007071000 -s 0 -d 1 -p cbr -e 590 -c 2 -a 0 -i 0 -k MAC 
- -t 1.007071000 -s 0 -d 1 -p cbr -e 590 -c 2 -a 0 -i 0 -k MAC
h -t 1.007071000 -s 0 -d 1 -p cbr -e 590 -c 2 -a 0 -i 0 -k MAC
r -t 1.011692000 -s 2 -d 2 -p cbr -e 532 -c 2 -a 0 -i 1 -k MAC
+ -t 1.011702000 -s 2 -d -1 -p ACK -e 38 -c 2 -a 0 -i 0 -k MAC 
- -t 1.011702000 -s 2 -d -1 -p ACK -e 38 -c 2 -a 0 -i 0 -k MAC
h -t 1.011702000 -s 2 -d -1 -p ACK -e 38 -c 2 -a 0 -i 0 -k MAC
r -t 1.011717000 -s 2 -d 2 -p cbr -e 532 -c 2 -a 0 -i 1 -k AGT
r -t 1.011792000 -s 1 -d 1 -p cbr -e 532 -c 2 -a 0 -i 0 -k MAC
+ -t 1.011802000 -s 1 -d -1 -p ACK -e 38 -c 2 -a 0 -i 0 -k MAC 
- -t 1.011802000 -s 1 -d -1 -p ACK -e 38 -c 2 -a 0 -i 0 -k MAC
h -t 1.011802000 -s 1 -d -1 -p ACK -e 38 -c 2 -a 0 -i 0 -k MAC
r -t 1.011817000 -s 1 -d 1 -p cbr -e 532 -c 2 -a 0 -i 0 -k AGT
r -t 1.012007000 -s 3 -d -1 -p ACK -e 38 -c 2 -a 0 -i 0 -k MAC
r -t 1.012107000 -s 0 -d -1 -p ACK -e 38 -c 2 -a 0 -i 0 -k MAC
+ -t 1.100000000 -s 0 -d -1 -p cbr -e 512 -c 2 -a 0 -i 2 -k AGT 
- -t 1.100000000 -s 0 -d -1 -p cbr -e 512 -c 2 -a 0 -i 2 -k AGT
h -t 1.100000000 -s 0 -d -1 -p cbr -e 512 -c 2 -a 0 -i 2 -k AGT
+ -t 1.100000000 -s 3 -d -1 -p cbr -e 512 -c 2 -a 0 -i 3 -k AGT 
- -t 1.100000000 -s 3 -d -1 -p cbr -e 512 -c 2 -a 0 -i 3 -k AGT
h -t 1.100000000 -s 3 -d -1 -p cbr -e 512 -c 2 -a 0 -i 3 -k AGT
+ -t 1.100000000 -s 0 -d 1 -p cbr -e 532 -c 2 -a 0 -i 2 -k RTR 
- -t 1.100000000 -s 0 -d 1 -p cbr -e 532 -c 2 -a 0 -i 2 -k RTR
h -t 1.100000000 -s 0 -d 1 -p cbr -e 532 -c 2 -a 0 -i 2 -k RTR
+ -t 1.100000000 -s 3 -d 2 -p cbr -e 532 -c 2 -a 0 -i 3 -k RTR 
- -t 1.100000000 -s 3 -d 2 -p cbr -e 532 -c 2 -a 0 -i 3 -k RTR
h -t 1.100000000 -s 3 -d 2 -p cbr -e 532 -c 2 -a 0 -i 3 -k RTR
+ -t 1.100235000 -s 0 -d -1 -p RTS -e 44 -c 2 -a 0 -i 0 -k MAC 
- -t 1.100235000 -s 0 -d -1 -p RTS -e 44 -c 2 -a 0 -i 0 -k MAC
h -t 1.100235000 -s 0 -d -1 -p RTS -e 44 -c 2 -a 0 -i 0 -k MAC
+ -t 1.100555000 -s 3 -d -1 -p RTS -e 44 -c 2 -a 0 -i 0 -k MAC 
- -t 1.100555000 -s 3 -d -1 -p RTS -e 44 -c 2 -a 0 -i 0 -k MAC
h -t 1.100555000 -s 3 -d -1 -p RTS -e 44 -c 2 -a 0 -i 0 -k MAC
r -t 1.100588000 -s 1 -d -1 -p RTS -e 44 -c 2 -a 0 -i 0 -k MAC
+ -t 1.100598000 -s 1 -d -1 -p CTS -e 38 -c 2 -a 0 -i 0 -k MAC 
- -t 1.100598000 -s 1 -d -1 -p CTS -e 38 -c 2 -a 0 -i 0 -k MAC
h -t 1.100598000 -s 1 -d -1 -p CTS -e 38 -c 2 -a 0 -i 0 -k MAC
r -t 1.100903000 -s 0 -d -1 -p CTS -e 38 -c 2 -a 0 -i 0 -k MAC
r -t 1.100908000 -s 2 -d -1 -p RTS -e 44 -c 2 -a 0 -i 0 -k MAC
+ -t 1.100913000 -s 0 -d 1 -p cbr -e 590 -c 2 -a 0 -i 2 -k MAC 
- -t 1.100913000 -s 0 -d 1 -p cbr -e 590 -c 2 -a 0 -i 2 -k MAC
h -t 1.100913000 -s 0 -d 1 -p cbr -e 590 -c 2 -a 0 -i 2 -k MAC
+ -t 1.100918000 -s 2 -d -1 -p CTS -e 38 -c 2 -a 0 -i 0 -k MAC 
- -t 1.100918000 -s 2 -d -1 -p CTS -e 38 -c 2 -a 0 -i 0 -k MAC
h -t 1.100918000 -s 2 -d -1 -p CTS -e 38 -c 2 -a 0 -i 0 -k MAC
r -t 1.101223000 -s 3 -d -1 -p CTS -e 38 -c 2 -a 0 -i 0 -k MAC
+ -t 1.101233000 -s 3 -d 2 -p cbr -e 590 -c 2 -a 0 -i 3 -k MAC 
- -t 1.101233000 -s 3 -d 2 -p cbr -e 590 -c 2 -a 0 -i 3 -k MAC
h -t 1.101233000 -s 3 -d 2 -p cbr -e 590 -c 2 -a 0 -i 3 -k MAC
r -t 1.105634000 -s 1 -d 1 -p cbr -e 532 -c 2 -a 0 -i 2 -k MAC
+ -t 1.105644000 -s 1 -d -1 -p ACK -e 38 -c 2 -a 0 -i 0 -k MAC 
- -t 1.105644000 -s 1 -d -1 -p ACK -e 38 -c 2 -a 0 -i 0 -k MAC
h -t 1.105644000 -s 1 -d -1 -p ACK -e 38 -c 2 -a 0 -i 0 -k MAC
r -t 1.105659000 -s 1 -d 1 -p cbr -e 532 -c 2 -a 0 -i 2 -k AGT
r -t 1.105949000 -s 0 -d -1 -p ACK -e 38 -c 2 -a 0 -i 0 -k MAC
r -t 1.105954000 -s 2 -d 2 -p cbr -e 532 -c 2 -a 0 -i 3 -k MAC
+ -t 1.105964000 -s 2 -d -1 -p ACK -e 38 -c 2 -a 0 -i 0 -k MAC 
- -t 1.105964000 -s 2 -d -1 -p ACK -e 38 -c 2 -a 0 -i 0 -k MAC
h -t 1.105964000 -s 2 -d -1 -p ACK -e 38 -c 2 -a 0 -i 0 -k MAC
r -t 1.105979000 -s 2 -d 2 -p cbr -e 532 -c 2 -a 0 -i 3 -k AGT
r -t 1.106269000 -s 3 -d -1 -p ACK -e 38 -c 2 -a 0 -i 0 -k MAC
+ -t 1.200000000 -s 0 -d -1 -p cbr -e 512 -c 2 -a 0 -i 4 -k AGT 
- -t 1.200000000 -s 0 -d -1 -p cbr -e 512 -c 2 -a 0 -i 4 -k AGT
h -t 1.200000000 -s 0 -d -1 -p cbr -e 512 -c 2 -a 0 -i 4 -k AGT
+ -t 1.200000000 -s 3 -d -1 -p cbr -e 512 -c 2 -a 0 -i 5 -k AGT 
- -t 1.200000000 -s 3 -d -1 -p cbr -e 512 -c 2 -a 0 -i 5 -k AGT
h -t 1.200000000 -s 3 -d -1 -p cbr -e 512 -c 2 -a 0 -i 5 -k AGT
+ -t 1.200000000 -s 0 -d 1 -p cbr -e 532 -c 2 -a 0 -i 4 -k RTR 
- -t 1.200000000 -s 0 -d 1 -p cbr -e 532 -c 2 -a 0 -i 4 -k RTR
h -t 1.200000000 -s 0 -d 1 -p cbr -e 532 -c 2 -a 0 -i 4 -k RTR
+ -t 1.200000000 -s 3 -d 2 -p cbr -e 532 -c 2 -a 0 -i 5 -k RTR 
- -t 1.200000000 -s 3 -d 2 -p cbr -e 532 -c 2 -a 0 -i 5 -k RTR
h -t 1.200000000 -s 3 -d 2 -p cbr -e 532 -c 2 -a 0 -i 5 -k RTR
+ -t 1.200275000 -s 0 -d -1 -p RTS -e 44 -c 2 -a 0 -i 0 -k MAC 
- -t 1.200275000 -s 0 -d -1 -p RTS -e 44 -c 2 -a 0 -i 0 -k MAC
h -t 1.200275000 -s 0 -d -1 -p RTS -e 44 -c 2 -a 0 -i 0 -k MAC
+ -t 1.200295000 -s 3 -d -1 -p RTS -e 44 -c 2 -a 0 -i 0 -k MAC 
- -t 1.200295000 -s 3 -d -1 -p RTS -e 44 -c 2 -a 0 -i 0 -k MAC
h -t 1.200295000 -s 3 -d -1 -p RTS -e 44 -c 2 -a 0 -i 0 -k MAC
r -t 1.200628000 -s 1 -d -1 -p RTS -e 44 -c 2 -a 0 -i 0 -k MAC
+ -t 1.200638000 -s 1 -d -1 -p CTS -e 38 -c 2 -a 0 -i 0 -k MAC 
- -t 1.200638000 -s 1 -d -1 -p CTS -e 38 -c 2 -a 0 -i 0 -k MAC
h -t 1.200638000 -s 1 -d -1 -p CTS -e 38 -c 2 -a 0 -i 0 -k MAC
r -t 1.200648000 -s 2 -d -1 -p RTS -e 44 -c 2 -a 0 -i 0 -k MAC
+ -t 1.200658000 -s 2 -d -1 -p CTS -e 38 -c 2 -a 0 -i 0 -k MAC 
- -t 1.200658000 -s 2 -d -1 -p CTS -e 38 -c 2 -a 0 -i 0 -k MAC
h -t 1.200658000 -s 2 -d -1 -p CTS -e 38 -c 2 -a 0 -i 0 -k MAC
r -t 1.200943000 -s 0 -d -1 -p CTS -e 38 -c 2 -a 0 -i 0 -k MAC
+ -t 1.200953000 -s 0 -d 1 -p cbr -e 590 -c 2 -a 0 -i 4 -k MAC 
- -t 1.200953000 -s 0 -d 1 -p cbr -e 590 -c 2 -a 0 -i 4 -k MAC
h -t 1.200953000 -s 0 -d 1 -p cbr -e 590 -c 2 -a 0 -i 4 -k MAC
r -t 1.200963000 -s 3 -d -1 -p CTS -e 38 -c 2 -a 0 -i 0 -k MAC
+ -t 1.200973000 -s 3 -d 2 -p cbr -e 590 -c 2 -a 0 -i 5 -k MAC 
- -t 1.200973000 -s 3 -d 2 -p cbr -e 590 -c 2 -a 0 -i 5 -k MAC
h -t 1.200973000 -s 3 -d 2 -p cbr -e 590 -c 2 -a 0 -i 5 -k MAC
r -t 1.205674000 -s 1 -d 1 -p cbr -e 532 -c 2 -a 0 -i 4 -k MAC
+ -t 1.205684000 -s 1 -d -1 -p ACK -e 38 -c 2 -a 0 -i 0 -k MAC 
- -t 1.205684000 -s 1 -d -1 -p ACK -e 38 -c 2 -a 0 -i 0 -k MAC
h -t 1.205684000 -s 1 -d -1 -p ACK -e 38 -c 2 -a 0 -i 0 -k MAC
r -t 1.205694000 -s 2 -d 2 -p cbr -e 532 -c 2 -a 0 -i 5 -k MAC
r -t 1.205699000 -s 1 -d 1 -p cbr -e 532 -c 2 -a 0 -i 4 -k AGT
+ -t 1.205704000 -s 2 -d -1 -p ACK -e 38 -c 2 -a 0 -i 0 -k MAC 
- -t 1.205704000 -s 2 -d -1 -p ACK -e 38 -c 2 -a 0 -i 0 -k MAC
h -t 1.205704000 -s 2 -d -1 -p ACK -e 38 -c 2 -a 0 -i 0 -k MAC
r -t 1.205719000 -s 2 -d 2 -p cbr -e 532 -c 2 -a 0 -i 5 -k AGT
r -t 1.205989000 -s 0 -d -1 -p ACK -e 38 -c 2 -a 0 -i 0 -k MAC
r -t 1.206009000 -s 3 -d -1 -p ACK -e 38 -c 2 -a 0 -i 0 -k MAC
+ -t 1.300000000 -s 0 -d -1 -p cbr -e 512 -c 2 -a 0 -i 6 -k AGT 
- -t 1.300000000 -s 0 -d -1 -p cbr -e 512 -c 2 -a 0 -i 6 -k AGT
h -t 1.300000000 -s 0 -d -1 -p cbr -e 512 -c 2 -a 0 -i 6 -k AGT
+ -t 1.300000000 -s 3 -d -1 -p cbr -e 512 -c 2 -a 0 -i 7 -k AGT 
- -t 1.300000000 -s 3 -d -1 -p cbr -e 512 -c 2 -a 0 -i 7 -k AGT
h -t 1.300000000 -s 3 -d -1 -p cbr -e 512 -c 2 -a 0 -i 7 -k AGT
+ -t 1.300000000 -s 0 -d 1 -p cbr -e 532 -c 2 -a 0 -i 6 -k RTR 
- -t 1.300000000 -s 0 -d 1 -p cbr -e 532 -c 2 -a 0 -i 6 -k RTR
h -t 1.300000000 -s 0 -d 1 -p cbr -e 532 -c 2 -a 0 -i 6 -k RTR
+ -t 1.300000000 -s 3 -d 2 -p cbr -e 532 -c 2 -a 0 -i 7 -k RTR 
- -t 1.300000000 -s 3 -d 2 -p cbr -e 532 -c 2 -a 0 -i 7 -k RTR
h -t 1.300000000 -s 3 -d 2 -p cbr -e 532 -c 2 -a 0 -i 7 -k RTR
+ -t 1.300255000 -s 3 -d -1 -p RTS -e 44 -c 2 -a 0 -i 0 -k MAC 
- -t 1.300255000 -s 3 -d -1 -p RTS -e 44 -c 2 -a 0 -i 0 -k MAC
h -t 1.300255000 -s 3 -d -1 -p RTS -e 44 -c 2 -a 0 -i 0 -k MAC
+ -t 1.300515000 -s 0 -d -1 -p RTS -e 44 -c 2 -a 0 -i 0 -k MAC 
- -t 1.300515000 -s 0 -d -1 -p RTS -e 44 -c 2 -a 0 -i 0 -k MAC
h -t 1.300515000 -s 0 -d -1 -p RTS -e 44 -c 2 -a 0 -i 0 -k MAC
r -t 1.300608000 -s 2 -d -1 -p RTS -e 44 -c 2 -a 0 -i 0 -k MAC
+ -t 1.300618000 -s 2 -d -1 -p CTS -e 38 -c 2 -a 0 -i 0 -k MAC 
- -t 1.300618000 -s 2 -d -1 -p CTS -e 38 -c 2 -a 0 -i 0 -k MAC
h -t 1.300618000 -s 2 -d -1 -p CTS -e 38 -c 2 -a 0 -i 0 -k MAC
r -t 1.300868000 -s 1 -d -1 -p RTS -e 44 -c 2 -a 0 -i 0 -k MAC
+ -t 1.300878000 -s 1 -d -1 -p CTS -e 38 -c 2 -a 0 -i 0 -k MAC 
- -t 1.300878000 -s 1 -d -1 -p CTS -e 38 -c 2 -a 0 -i 0 -k MAC
h -t 1.300878000 -s 1 -d -1 -p CTS -e 38 -c 2 -a 0 -i 0 -k MAC
r -t 1.300923000 -s 3 -d -1 -p CTS -e 38 -c 2 -a 0 -i 0 -k MAC
+ -t 1.300933000 -s 3 -d 2 -p cbr -e 590 -c 2 -a 0 -i 7 -k MAC 
- -t 1.300933000 -s 3 -d 2 -p cbr -e 590 -c 2 -a 0 -i 7 -k MAC
h -t 1.300933000 -s 3 -d 2 -p cbr -e 590 -c 2 -a 0 -i 7 -k MAC
r -t 1.301183000 -s 0 -d -1 -p CTS -e 38 -c 2 -a 0 -i 0 -k MAC
+ -t 1.301193000 -s 0 -d 1 -p cbr -e 590 -c 2 -a 0 -i 6 -k MAC 
- -t 1.301193000 -s 0 -d 1 -p cbr -e 590 -c 2 -a 0 -i 6 -k MAC
h -t 1.301193000 -s 0 -d 1 -p cbr -e 590 -c 2 -a 0 -i 6 -k MAC
r -t 1.305654000 -s 2 -d 2 -p cbr -e 532 -c 2 -a 0 -i 7 -k MAC
+ -t 1.305664000 -s 2 -d -1 -p ACK -e 38 -c 2 -a 0 -i 0 -k MAC 
- -t 1.305664000 -s 2 -d -1 -p ACK -e 38 -c 2 -a 0 -i 0 -k MAC
h -t 1.305664000 -s 2 -d -1 -p ACK -e 38 -c 2 -a 0 -i 0 -k MAC
r -t 1.305679000 -s 2 -d 2 -p cbr -e 532 -c 2 -a 0 -i 7 -k AGT
r -t 1.305914000 -s 1 -d 1 -p cbr -e 532 -c 2 -a 0 -i 6 -k MAC
+ -t 1.305924000 -s 1 -d -1 -p ACK -e 38 -c 2 -a 0 -i 0 -k MAC 
- -t 1.305924000 -s 1 -d -1 -p ACK -e 38 -c 2 -a 0 -i 0 -k MAC
h -t 1.305924000 -s 1 -d -1 -p ACK -e 38 -c 2 -a 0 -i 0 -k MAC
r -t 1.305939000 -s 1 -d 1 -p cbr -e 532 -c 2 -a 0 -i 6 -k AGT
r -t 1.305969000 -s 3 -d -1 -p ACK -e 38 -c 2 -a 0 -i 0 -k MAC
r -t 1.306229000 -s 0 -d -1 -p ACK -e 38 -c 2 -a 0 -i 0 -k MAC
+ -t 1.400000000 -s 0 -d -1 -p cbr -e 512 -c 2 -a 0 -i 8 -k AGT 
- -t 1.400000000 -s 0 -d -1 -p cbr -e 512 -c 2 -a 0 -i 8 -k AGT
h -t 1.400000000 -s 0 -d -1 -p cbr -e 512 -c 2 -a 0 -i 8 -k AGT
+ -t 1.400000000 -s 3 -d -1 -p cbr -e 512 -c 2 -a 0 -i 9 -k AGT 
- -t 1.400000000 -s 3 -d -1 -p cbr -e 512 -c 2 -a 0 -i 9 -k AGT
h -t 1.400000000 -s 3 -d -1 -p cbr -e 512 -c 2 -a 0 -i 9 -k AGT
+ -t 1.400000000 -s 0 -d 1 -p cbr -e 532 -c 2 -a 0 -i 8 -k RTR 
- -t 1.400000000 -s 0 -d 1 -p cbr -e 532 -c 2 -a 0 -i 8 -k RTR
h -t 1.400000000 -s 0 -d 1 -p cbr -e 532 -c 2 -a 0 -i 8 -k RTR
+ -t 1.400000000 -s 3 -d 2 -p cbr -e 532 -c 2 -a 0 -i 9 -k RTR 
- -t 1.400000000 -s 3 -d 2 -p cbr -e 532 -c 2 -a 0 -i 9 -k RTR
h -t 1.400000000 -s 3 -d 2 -p cbr -e 532 -c 2 -a 0 -i 9 -k RTR
+ -t 1.400435000 -s 3 -d -1 -p RTS -e 44 -c 2 -a 0 -i 0 -k MAC 
- -t 1.400435000 -s 3 -d -1 -p RTS -e 44 -c 2 -a 0 -i 0 -k MAC
h -t 1.400435000 -s 3 -d -1 -p RTS -e 44 -c 2 -a 0 -i 0 -k MAC
+ -t 1.400615000 -s 0 -d -1 -p RTS -e 44 -c 2 -a 0 -i 0 -k MAC 
- -t 1.400615000 -s 0 -d -1 -p RTS -e 44 -c 2 -a 0 -i 0 -k MAC
h -t 1.400615000 -s 0 -d -1 -p RTS -e 44 -c 2 -a 0 -i 0 -k MAC
r -t 1.400788000 -s 2 -d -1 -p RTS -e 44 -c 2 -a 0 -i 0 -k MAC
+ -t 1.400798000 -s 2 -d -1 -p CTS -e 38 -c 2 -a 0 -i 0 -k MAC 
- -t 1.400798000 -s 2 -d -1 -p CTS -e 38 -c 2 -a 0 -i 0 -k MAC
h -t 1.400798000 -s 2 -d -1 -p CTS -e 38 -c 2 -a 0 -i 0 -k MAC
r -t 1.400968000 -s 1 -d -1 -p RTS -e 44 -c 2 -a 0 -i 0 -k MAC
+ -t 1.400978000 -s 1 -d -1 -p CTS -e 38 -c 2 -a 0 -i 0 -k MAC 
- -t 1.400978000 -s 1 -d -1 -p CTS -e 38 -c 2 -a 0 -i 0 -k MAC
h -t 1.400978000 -s 1 -d -1 -p CTS -e 38 -c 2 -a 0 -i 0 -k MAC
r -t 1.401103000 -s 3 -d -1 -p CTS -e 38 -c 2 -a 0 -i 0 -k MAC
+ -t 1.401113000 -s 3 -d 2 -p cbr -e 590 -c 2 -a 0 -i 9 -k MAC 
- -t 1.401113000 -s 3 -d 2 -p cbr -e 590 -c 2 -a 0 -i 9 -k MAC
h -t 1.401113000 -s 3 -d 2 -p cbr -e 590 -c 2 -a 0 -i 9 -k MAC
r -t 1.401283000 -s 0 -d -1 -p CTS -e 38 -c 2 -a 0 -i 0 -k MAC
+ -t 1.401293000 -s 0 -d 1 -p cbr -e 590 -c 2 -a 0 -i 8 -k MAC 
- -t 1.401293000 -s 0 -d 1 -p cbr -e 590 -c 2 -a 0 -i 8 -k MAC
h -t 1.401293000 -s 0 -d 1 -p cbr -e 590 -c 2 -a 0 -i 8 -k MAC
r -t 1.405834000 -s 2 -d 2 -p cbr -e 532 -c 2 -a 0 -i 9 -k MAC
+ -t 1.405844000 -s 2 -d -1 -p ACK -e 38 -c 2 -a 0 -i 0 -k MAC 
- -t 1.405844000 -s 2 -d -1 -p ACK -e 38 -c 2 -a 0 -i 0 -k MAC
h -t 1.405844000 -s 2 -d -1 -p ACK -e 38 -c 2 -a 0 -i 0 -k MAC
r -t 1.405859000 -s 2 -d 2 -p cbr -e 532 -c 2 -a 0 -i 9 -k AGT
r -t 1.406014000 -s 1 -d 1 -p cbr -e 532 -c 2 -a 0 -i 8 -k MAC
+ -t 1.406024000 -s 1 -d -1 -p ACK -e 38 -c 2 -a 0 -i 0 -k MAC 
- -t 1.406024000 -s 1 -d -1 -p ACK -e 38 -c 2 -a 0 -i 0 -k MAC
h -t 1.406024000 -s 1 -d -1 -p ACK -e 38 -c 2 -a 0 -i 0 -k MAC
r -t 1.406039000 -s 1 -d 1 -p cbr -e 532 -c 2 -a 0 -i 8 -k AGT
r -t 1.406149000 -s 3 -d -1 -p ACK -e 38 -c 2 -a 0 -i 0 -k MAC
r -t 1.406329000 -s 0 -d -1 -p ACK -e 38 -c 2 -a 0 -i 0 -k MAC
+ -t 1.500000000 -s 0 -d -1 -p cbr -e 512 -c 2 -a 0 -i 10 -k AGT 
- -t 1.500000000 -s 0 -d -1 -p cbr -e 512 -c 2 -a 0 -i 10 -k AGT
h -t 1.500000000 -s 0 -d -1 -p cbr -e 512 -c 2 -a 0 -i 10 -k AGT
+ -t 1.500000000 -s 3 -d -1 -p cbr -e 512 -c 2 -a 0 -i 11 -k AGT 
- -t 1.500000000 -s 3 -d -1 -p cbr -e 512 -c 2 -a 0 -i 11 -k AGT
h -t 1.500000000 -s 3 -d -1 -p cbr -e 512 -c 2 -a 0 -i 11 -k AGT
+ -t 1.500000000 -s 0 -d 1 -p cbr -e 532 -c 2 -a 0 -i 10 -k RTR 
- -t 1.500000000 -s 0 -d 1 -p cbr -e 532 -c 2 -a 0 -i 10 -k RTR
h -t 1.500000000 -s 0 -d 1 -p cbr -e 532 -c 2 -a 0 -i 10 -k RTR
+ -t 1.500000000 -s 3 -d 2 -p cbr -e 532 -c 2 -a 0 -i 11 -k RTR 
- -t 1.500000000 -s 3 -d 2 -p cbr -e 532 -c 2 -a 0 -i 11 -k RTR
h -t 1.500000000 -s 3 -d 2 -p cbr -e 532 -c 2 -a 0 -i 11 -k RTR
+ -t 1.500215000 -s 3 -d -1 -p RTS -e 44 -c 2 -a 0 -i 0 -k MAC 
- -t 1.500215000 -s 3 -d -1 -p RTS -e 44 -c 2 -a 0 -i 0 -k MAC
h -t 1.500215000 -s 3 -d -1 -p RTS -e 44 -c 2 -a 0 -i 0 -k MAC
+ -t 1.500435000 -s 0 -d -1 -p RTS -e 44 -c 2 -a 0 -i 0 -k MAC 
- -t 1.500435000 -s 0 -d -1 -p RTS -e 44 -c 2 -a 0 -i 0 -k MAC
h -t 1.500435000 -s 0 -d -1 -p RTS -e 44 -c 2 -a 0 -i 0 -k MAC
r -t 1.500568000 -s 2 -d -1 -p RTS -e 44 -c 2 -a 0 -i 0 -k MAC
+ -t 1.500578000 -s 2 -d -1 -p CTS -e 38 -c 2 -a 0 -i 0 -k MAC 
- -t 1.500578000 -s 2 -d -1 -p CTS -e 38 -c 2 -a 0 -i 0 -k MAC
h -t 1.500578000 -s 2 -d -1 -p CTS -e 38 -c 2 -a 0 -i 0 -k MAC
r -t 1.500788000 -s 1 -d -1 -p RTS -e 44 -c 2 -a 0 -i 0 -k MAC
+ -t 1.500798000 -s 1 -d -1 -p CTS -e 38 -c 2 -a 0 -i 0 -k MAC 
- -t 1.500798000 -s 1 -d -1 -p CTS -e 38 -c 2 -a 0 -i 0 -k MAC
h -t 1.500798000 -s 1 -d -1 -p CTS -e 38 -c 2 -a 0 -i 0 -k MAC
r -t 1.500883000 -s 3 -d -1 -p CTS -e 38 -c 2 -a 0 -i 0 -k MAC
+ -t 1.500893000 -s 3 -d 2 -p cbr -e 590 -c 2 -a 0 -i 11 -k MAC 
- -t 1.500893000 -s 3 -d 2 -p cbr -e 590 -c 2 -a 0 -i 11 -k MAC
h -t 1.500893000 -s 3 -d 2 -p cbr -e 590 -c 2 -a 0 -i 11 -k MAC
r -t 1.501103000 -s 0 -d -1 -p CTS -e 38 -c 2 -a 0 -i 0 -k MAC
+ -t 1.501113000 -s 0 -d 1 -p cbr -e 590 -c 2 -a 0 -i 10 -k MAC 
- -t 1.501113000 -s 0 -d 1 -p cbr -e 590 -c 2 -a 0 -i 10 -k MAC
h -t 1.501113000 -s 0 -d 1 -p cbr -e 590 -c 2 -a 0 -i 10 -k MAC
r -t 1.505614000 -s 2 -d 2 -p cbr -e 532 -c 2 -a 0 -i 11 -k MAC
+ -t 1.505624000 -s 2 -d -1 -p ACK -e 38 -c 2 -a 0 -i 0 -k MAC 
- -t 1.505624000 -s 2 -d -1 -p ACK -e 38 -c 2 -a 0 -i 0 -k MAC
h -t 1.505624000 -s 2 -d -1 -p ACK -e 38 -c 2 -a 0 -i 0 -k MAC
r -t 1.505639000 -s 2 -d 2 -p cbr -e 532 -c 2 -a 0 -i 11 -k AGT
r -t 1.505834000 -s 1 -d 1 -p cbr -e 532 -c 2 -a 0 -i 10 -k MAC
+ -t 1.505844000 -s 1 -d -1 -p ACK -e 38 -c 2 -a 0 -i 0 -k MAC 
- -t 1.505844000 -s 1 -d -1 -p ACK -e 38 -c 2 -a 0 -i 0 -k MAC
h -t 1.505844000 -s 1 -d -1 -p ACK -e 38 -c 2 -a 0 -i 0 -k MAC
r -t 1.505859000 -s 1 -d 1 -p cbr -e 532 -c 2 -a 0 -i 10 -k AGT
r -t 1.505929000 -s 3 -d -1 -p ACK -e 38 -c 2 -a 0 -i 0 -k MAC
r -t 1.506149000 -s 0 -d -1 -p ACK -e 38 -c 2 -a 0 -i 0 -k MAC
+ -t 1.600000000 -s 0 -d -1 -p cbr -e 512 -c 2 -a 0 -i 12 -k AGT 
- -t 1.600000000 -s 0 -d -1 -p cbr -e 512 -c 2 -a 0 -i 12 -k AGT
h -t 1.600000000 -s 0 -d -1 -p cbr -e 512 -c 2 -a 0 -i 12 -k AGT
+ -t 1.600000000 -s 3 -d -1 -p cbr -e 512 -c 2 -a 0 -i 13 -k AGT 
- -t 1.600000000 -s 3 -d -1 -p cbr -e 512 -c 2 -a 0 -i 13 -k AGT
h -t 1.600000000 -s 3 -d -1 -p cbr -e 512 -c 2 -a 0 -i 13 -k AGT
+ -t 1.600000000 -s 0 -d 1 -p cbr -e 532 -c 2 -a 0 -i 12 -k RTR 
- -t 1.600000000 -s 0 -d 1 -p cbr -e 532 -c 2 -a 0 -i 12 -k RTR
h -t 1.600000000 -s 0 -d 1 -p cbr -e 532 -c 2 -a 0 -i 12 -k RTR
+ -t 1.600000000 -s 3 -d 2 -p cbr -e 532 -c 2 -a 0 -i 13 -k RTR 
- -t 1.600000000 -s 3 -d 2 -p cbr -e 532 -c 2 -a 0 -i 13 -k RTR
h -t 1.600000000 -s 3 -d 2 -p cbr -e 532 -c 2 -a 0 -i 13 -k RTR
+ -t 1.600175000 -s 3 -d -1 -p RTS -e 44 -c 2 -a 0 -i 0 -k MAC 
- -t 1.600175000 -s 3 -d -1 -p RTS -e 44 -c 2 -a 0 -i 0 -k MAC
h -t 1.600175000 -s 3 -d -1 -p RTS -e 44 -c 2 -a 0 -i 0 -k MAC
+ -t 1.600275000 -s 0 -d -1 -p RTS -e 44 -c 2 -a 0 -i 0 -k MAC 
- -t 1.600275000 -s 0 -d -1 -p RTS -e 44 -c 2 -a 0 -i 0 -k MAC
h -t 1.600275000 -s 0 -d -1 -p RTS -e 44 -c 2 -a 0 -i 0 -k MAC
r -t 1.600528000 -s 2 -d -1 -p RTS -e 44 -c 2 -a 0 -i 0 -k MAC
+ -t 1.600538000 -s 2 -d -1 -p CTS -e 38 -c 2 -a 0 -i 0 -k MAC 
- -t 1.600538000 -s 2 -d -1 -p CTS -e 38 -c 2 -a 0 -i 0 -k MAC
h -t 1.600538000 -s 2 -d -1 -p CTS -e 38 -c 2 -a 0 -i 0 -k MAC
r -t 1.600628000 -s 1 -d -1 -p RTS -e 44 -c 2 -a 0 -i 0 -k MAC
+ -t 1.600638000 -s 1 -d -1 -p CTS -e 38 -c 2 -a 0 -i 0 -k MAC 
- -t 1.600638000 -s 1 -d -1 -p CTS -e 38 -c 2 -a 0 -i 0 -k MAC
h -t 1.600638000 -s 1 -d -1 -p CTS -e 38 -c 2 -a 0 -i 0 -k MAC
r -t 1.600843000 -s 3 -d -1 -p CTS -e 38 -c 2 -a 0 -i 0 -k MAC
+ -t 1.600853000 -s 3 -d 2 -p cbr -e 590 -c 2 -a 0 -i 13 -k MAC 
- -t 1.600853000 -s 3 -d 2 -p cbr -e 590 -c 2 -a 0 -i 13 -k MAC
h -t 1.600853000 -s 3 -d 2 -p cbr -e 590 -c 2 -a 0 -i 13 -k MAC
r -t 1.600943000 -s 0 -d -1 -p CTS -e 38 -c 2 -a 0 -i 0 -k MAC
+ -t 1.600953000 -s 0 -d 1 -p cbr -e 590 -c 2 -a 0 -i 12 -k MAC 
- -t 1.600953000 -s 0 -d 1 -p cbr -e 590 -c 2 -a 0 -i 12 -k MAC
h -t 1.600953000 -s 0 -d 1 -p cbr -e 590 -c 2 -a 0 -i 12 -k MAC
r -t 1.605574000 -s 2 -d 2 -p cbr -e 532 -c 2 -a 0 -i 13 -k MAC
+ -t 1.605584000 -s 2 -d -1 -p ACK -e 38 -c 2 -a 0 -i 0 -k MAC 
- -t 1.605584000 -s 2 -d -1 -p ACK -e 38 -c 2 -a 0 -i 0 -k MAC
h -t 1.605584000 -s 2 -d -1 -p ACK -e 38 -c 2 -a 0 -i 0 -k MAC
r -t 1.605599000 -s 2 -d 2 -p cbr -e 532 -c 2 -a 0 -i 13 -k AGT
r -t 1.605674000 -s 1 -d 1 -p cbr -e 532 -c 2 -a 0 -i 12 -k MAC
+ -t 1.605684000 -s 1 -d -1 -p ACK -e 38 -c 2 -a 0 -i 0 -k MAC 
- -t 1.605684000 -s 1 -d -1 -p ACK -e 38 -c 2 -a 0 -i 0 -k MAC
h -t 1.605684000 -s 1 -d -1 -p ACK -e 38 -c 2 -a 0 -i 0 -k MAC
r -t 1.605699000 -s 1 -d 1 -p cbr -e 532 -c 2 -a 0 -i 12 -k AGT
r -t 1.605889000 -s 3 -d -1 -p ACK -e 38 -c 2 -a 0 -i 0 -k MAC
r -t 1.605989000 -s 0 -d -1 -p ACK -e 38 -c 2 -a 0 -i 0 -k MAC
+ -t 1.700000000 -s 0 -d -1 -p cbr -e 512 -c 2 -a 0 -i 14 -k AGT 
- -t 1.700000000 -s 0 -d -1 -p cbr -e 512 -c 2 -a 0 -i 14 -k AGT
h -t 1.700000000 -s 0 -d -1 -p cbr -e 512 -c 2 -a 0 -i 14 -k AGT
+ -t 1.700000000 -s 3 -d -1 -p cbr -e 512 -c 2 -a 0 -i 15 -k AGT 
- -t 1.700000000 -s 3 -d -1 -p cbr -e 512 -c 2 -a 0 -i 15 -k AGT
h -t 1.700000000 -s 3 -d -1 -p cbr -e 512 -c 2 -a 0 -i 15 -k AGT
+ -t 1.700000000 -s 0 -d 1 -p cbr -e 532 -c 2 -a 0 -i 14 -k RTR 
- -t 1.700000000 -s 0 -d 1 -p cbr -e 532 -c 2 -a 0 -i 14 -k RTR
h -t 1.700000000 -s 0 -d 1 -p cbr -e 532 -c 2 -a 0 -i 14 -k RTR
+ -t 1.700000000 -s 3 -d 2 -p cbr -e 532 -c 2 -a 0 -i 15 -k RTR 
- -t 1.700000000 -s 3 -d 2 -p cbr -e 532 -c 2 -a 0 -i 15 -k RTR
h -t 1.700000000 -s 3 -d 2 -p cbr -e 532 -c 2 -a 0 -i 15 -k RTR
+ -t 1.700275000 -s 0 -d -1 -p RTS -e 44 -c 2 -a 0 -i 0 -k MAC 
- -t 1.700275000 -s 0 -d -1 -p RTS -e 44 -c 2 -a 0 -i 0 -k MAC
h -t 1.700275000 -s 0 -d -1 -p RTS -e 44 -c 2 -a 0 -i 0 -k MAC
r -t 1.700628000 -s 1 -d -1 -p RTS -e 44 -c 2 -a 0 -i 0 -k MAC
+ -t 1.700638000 -s 1 -d -1 -p CTS -e 38 -c 2 -a 0 -i 0 -k MAC 
- -t 1.700638000 -s 1 -d -1 -p CTS -e 38 -c 2 -a 0 -i 0 -k MAC
h -t 1.700638000 -s 1 -d -1 -p CTS -e 38 -c 2 -a 0 -i 0 -k MAC
+ -t 1.700655000 -s 3 -d -1 -p RTS -e 44 -c 2 -a 0 -i 0 -k MAC 
- -t 1.700655000 -s 3 -d -1 -p RTS -e 44 -c 2 -a 0 -i 0 -k MAC
h -t 1.700655000 -s 3 -d -1 -p RTS -e 44 -c 2 -a 0 -i 0 -k MAC
r -t 1.700943000 -s 0 -d -1 -p CTS -e 38 -c 2 -a 0 -i 0 -k MAC
+ -t 1.700953000 -s 0 -d 1 -p cbr -e 590 -c 2 -a 0 -i 14 -k MAC 
- -t 1.700953000 -s 0 -d 1 -p cbr -e 590 -c 2 -a 0 -i 14 -k MAC
h -t 1.700953000 -s 0 -d 1 -p cbr -e 590 -c 2 -a 0 -i 14 -k MAC
r -t 1.701008000 -s 2 -d -1 -p RTS -e 44 -c 2 -a 0 -i 0 -k MAC
+ -t 1.701018000 -s 2 -d -1 -p CTS -e 38 -c 2 -a 0 -i 0 -k MAC 
- -t 1.701018000 -s 2 -d -1 -p CTS -e 38 -c 2 -a 0 -i 0 -k MAC
h -t 1.701018000 -s 2 -d -1 -p CTS -e 38 -c 2 -a 0 -i 0 -k MAC
r -t 1.701323000 -s 3 -d -1 -p CTS -e 38 -c 2 -a 0 -i 0 -k MAC
+ -t 1.701333000 -s 3 -d 2 -p cbr -e 590 -c 2 -a 0 -i 15 -k MAC 
- -t 1.701333000 -s 3 -d 2 -p cbr -e 590 -c 2 -a 0 -i 15 -k MAC
h -t 1.701333000 -s 3 -d 2 -p cbr -e 590 -c 2 -a 0 -i 15 -k MAC
r -t 1.705674000 -s 1 -d 1 -p cbr -e 532 -c 2 -a 0 -i 14 -k MAC
+ -t 1.705684000 -s 1 -d -1 -p ACK -e 38 -c 2 -a 0 -i 0 -k MAC 
- -t 1.705684000 -s 1 -d -1 -p ACK -e 38 -c 2 -a 0 -i 0 -k MAC
h -t 1.705684000 -s 1 -d -1 -p ACK -e 38 -c 2 -a 0 -i 0 -k MAC
r -t 1.705699000 -s 1 -d 1 -p cbr -e 532 -c 2 -a 0 -i 14 -k AGT
r -t 1.705989000 -s 0 -d -1 -p ACK -e 38 -c 2 -a 0 -i 0 -k MAC
r -t 1.706054000 -s 2 -d 2 -p cbr -e 532 -c 2 -a 0 -i 15 -k MAC
+ -t 1.706064000 -s 2 -d -1 -p ACK -e 38 -c 2 -a 0 -i 0 -k MAC 
- -t 1.706064000 -s 2 -d -1 -p ACK -e 38 -c 2 -a 0 -i 0 -k MAC
h -t 1.706064000 -s 2 -d -1 -p ACK -e 38 -c 2 -a 0 -i 0 -k MAC
r -t 1.706079000 -s 2 -d 2 -p cbr -e 532 -c 2 -a 0 -i 15 -k AGT
r -t 1.706369000 -s 3 -d -1 -p ACK -e 38 -c 2 -a 0 -i 0 -k MAC
+ -t 1.800000000 -s 0 -d -1 -p cbr -e 512 -c 2 -a 0 -i 16 -k AGT 
- -t 1.800000000 -s 0 -d -1 -p cbr -e 512 -c 2 -a 0 -i 16 -k AGT
h -t 1.800000000 -s 0 -d -1 -p cbr -e 512 -c 2 -a 0 -i 16 -k AGT
+ -t 1.800000000 -s 3 -d -1 -p cbr -e 512 -c 2 -a 0 -i 17 -k AGT 